# LAMMPS data file written by Ovito 3.7.11
12000 atoms
1 atom types
0.0 43.1280648522 xlo xhi
0.0 24.899999852 ylo yhi
0.0 121.9845884657 zlo zhi

Atoms  # atomic

1 0 40.9716616096 23.6549998594 0.0
2 0 40.9716616096 21.1649998742 0.0
3 0 41.6904626904 22.4099998668 2.0330764744
4 0 42.4092637713 23.6549998594 4.0661529489
5 0 40.9716616096 18.674999889 0.0
6 0 41.6904626904 19.9199998816 2.0330764744
7 0 42.4092637713 21.1649998742 4.0661529489
8 0 40.9716616096 16.1849999038 0.0
9 0 41.6904626904 17.4299998964 2.0330764744
10 0 42.4092637713 18.674999889 4.0661529489
11 0 40.9716616096 13.6949999186 -3.6e-15
12 0 41.6904626904 14.9399999112 2.0330764744
13 0 42.4092637713 16.1849999038 4.0661529489
14 0 40.9716616096 11.2049999334 -3.6e-15
15 0 41.6904626904 12.449999926 2.0330764744
16 0 42.4092637713 13.6949999186 4.0661529489
17 0 40.9716616096 8.7149999482 -3.6e-15
18 0 41.6904626904 9.9599999408 2.0330764744
19 0 42.4092637713 11.2049999334 4.0661529489
20 0 40.9716616096 6.224999963 -3.6e-15
21 0 41.6904626904 7.4699999556 2.0330764744
22 0 42.4092637713 8.7149999482 4.0661529489
23 0 40.9716616096 3.7349999778 -3.6e-15
24 0 41.6904626904 4.9799999704 2.0330764744
25 0 42.4092637713 6.224999963 4.0661529489
26 0 40.9716616096 1.2449999926 0.0
27 0 41.6904626904 2.4899999852 2.0330764744
28 0 42.4092637713 3.7349999778 4.0661529489
29 0 41.6904626904 0.0 2.0330764744
30 0 42.4092637713 1.2449999926 4.0661529489
31 0 38.8152583669 22.4099998668 0.0
32 0 39.5340594478 23.6549998594 2.0330764744
33 0 38.8152583669 19.9199998816 0.0
34 0 39.5340594478 21.1649998742 2.0330764744
35 0 40.2528605287 22.4099998668 4.0661529489
36 0 40.9716616096 23.6549998594 6.0992294233
37 0 38.8152583669 17.4299998964 0.0
38 0 39.5340594478 18.674999889 2.0330764744
39 0 40.2528605287 19.9199998816 4.0661529489
40 0 40.9716616096 21.1649998742 6.0992294233
41 0 41.6904626904 22.4099998668 8.1323058977
42 0 42.4092637713 23.6549998594 10.1653823721
43 0 38.8152583669 14.9399999112 -3.6e-15
44 0 39.5340594478 16.1849999038 2.0330764744
45 0 40.2528605287 17.4299998964 4.0661529489
46 0 40.9716616096 18.674999889 6.0992294233
47 0 41.6904626904 19.9199998816 8.1323058977
48 0 42.4092637713 21.1649998742 10.1653823721
49 0 38.8152583669 12.449999926 -3.6e-15
50 0 39.5340594478 13.6949999186 2.0330764744
51 0 40.2528605287 14.9399999112 4.0661529489
52 0 40.9716616096 16.1849999038 6.0992294233
53 0 41.6904626904 17.4299998964 8.1323058977
54 0 42.4092637713 18.674999889 10.1653823721
55 0 38.8152583669 9.9599999408 0.0
56 0 39.5340594478 11.2049999334 2.0330764744
57 0 40.2528605287 12.449999926 4.0661529489
58 0 40.9716616096 13.6949999186 6.0992294233
59 0 41.6904626904 14.9399999112 8.1323058977
60 0 42.4092637713 16.1849999038 10.1653823721
61 0 38.8152583669 7.4699999556 -3.6e-15
62 0 39.5340594478 8.7149999482 2.0330764744
63 0 40.2528605287 9.9599999408 4.0661529489
64 0 40.9716616096 11.2049999334 6.0992294233
65 0 41.6904626904 12.449999926 8.1323058977
66 0 42.4092637713 13.6949999186 10.1653823721
67 0 38.8152583669 4.9799999704 -3.6e-15
68 0 39.5340594478 6.224999963 2.0330764744
69 0 40.2528605287 7.4699999556 4.0661529489
70 0 40.9716616096 8.7149999482 6.0992294233
71 0 41.6904626904 9.9599999408 8.1323058977
72 0 42.4092637713 11.2049999334 10.1653823721
73 0 38.8152583669 2.4899999852 0.0
74 0 39.5340594478 3.7349999778 2.0330764744
75 0 40.2528605287 4.9799999704 4.0661529489
76 0 40.9716616096 6.224999963 6.0992294233
77 0 41.6904626904 7.4699999556 8.1323058977
78 0 42.4092637713 8.7149999482 10.1653823721
79 0 38.8152583669 0.0 0.0
80 0 39.5340594478 1.2449999926 2.0330764744
81 0 40.2528605287 2.4899999852 4.0661529489
82 0 40.9716616096 3.7349999778 6.0992294233
83 0 41.6904626904 4.9799999704 8.1323058977
84 0 42.4092637713 6.224999963 10.1653823721
85 0 40.2528605287 0.0 4.0661529489
86 0 40.9716616096 1.2449999926 6.0992294233
87 0 41.6904626904 2.4899999852 8.1323058977
88 0 42.4092637713 3.7349999778 10.1653823721
89 0 41.6904626904 0.0 8.1323058977
90 0 42.4092637713 1.2449999926 10.1653823721
91 0 36.6588551243 23.6549998594 0.0
92 0 36.6588551243 21.1649998742 0.0
93 0 37.3776562052 22.4099998668 2.0330764744
94 0 38.0964572861 23.6549998594 4.0661529489
95 0 36.6588551243 18.674999889 0.0
96 0 37.3776562052 19.9199998816 2.0330764744
97 0 38.0964572861 21.1649998742 4.0661529489
98 0 38.8152583669 22.4099998668 6.0992294233
99 0 39.5340594478 23.6549998594 8.1323058977
100 0 36.6588551243 16.1849999038 0.0
101 0 37.3776562052 17.4299998964 2.0330764744
102 0 38.0964572861 18.674999889 4.0661529489
103 0 38.8152583669 19.9199998816 6.0992294233
104 0 39.5340594478 21.1649998742 8.1323058977
105 0 40.2528605287 22.4099998668 10.1653823721
106 0 40.9716616096 23.6549998594 12.1984588466
107 0 36.6588551243 13.6949999186 -3.6e-15
108 0 37.3776562052 14.9399999112 2.0330764744
109 0 38.0964572861 16.1849999038 4.0661529489
110 0 38.8152583669 17.4299998964 6.0992294233
111 0 39.5340594478 18.674999889 8.1323058977
112 0 40.2528605287 19.9199998816 10.1653823721
113 0 40.9716616096 21.1649998742 12.1984588466
114 0 41.6904626904 22.4099998668 14.231535321
115 0 42.4092637713 23.6549998594 16.2646117954
116 0 36.6588551243 11.2049999334 0.0
117 0 37.3776562052 12.449999926 2.0330764744
118 0 38.0964572861 13.6949999186 4.0661529489
119 0 38.8152583669 14.9399999112 6.0992294233
120 0 39.5340594478 16.1849999038 8.1323058977
121 0 40.2528605287 17.4299998964 10.1653823721
122 0 40.9716616096 18.674999889 12.1984588466
123 0 41.6904626904 19.9199998816 14.231535321
124 0 42.4092637713 21.1649998742 16.2646117954
125 0 36.6588551243 8.7149999482 0.0
126 0 37.3776562052 9.9599999408 2.0330764744
127 0 38.0964572861 11.2049999334 4.0661529489
128 0 38.8152583669 12.449999926 6.0992294233
129 0 39.5340594478 13.6949999186 8.1323058977
130 0 40.2528605287 14.9399999112 10.1653823721
131 0 40.9716616096 16.1849999038 12.1984588466
132 0 41.6904626904 17.4299998964 14.231535321
133 0 42.4092637713 18.674999889 16.2646117954
134 0 36.6588551243 6.224999963 -3.6e-15
135 0 37.3776562052 7.4699999556 2.0330764744
136 0 38.0964572861 8.7149999482 4.0661529489
137 0 38.8152583669 9.9599999408 6.0992294233
138 0 39.5340594478 11.2049999334 8.1323058977
139 0 40.2528605287 12.449999926 10.1653823721
140 0 40.9716616096 13.6949999186 12.1984588466
141 0 41.6904626904 14.9399999112 14.231535321
142 0 42.4092637713 16.1849999038 16.2646117954
143 0 36.6588551243 3.7349999778 0.0
144 0 37.3776562052 4.9799999704 2.0330764744
145 0 38.0964572861 6.224999963 4.0661529489
146 0 38.8152583669 7.4699999556 6.0992294233
147 0 39.5340594478 8.7149999482 8.1323058977
148 0 40.2528605287 9.9599999408 10.1653823721
149 0 40.9716616096 11.2049999334 12.1984588466
150 0 41.6904626904 12.449999926 14.231535321
151 0 42.4092637713 13.6949999186 16.2646117954
152 0 36.6588551243 1.2449999926 0.0
153 0 37.3776562052 2.4899999852 2.0330764744
154 0 38.0964572861 3.7349999778 4.0661529489
155 0 38.8152583669 4.9799999704 6.0992294233
156 0 39.5340594478 6.224999963 8.1323058977
157 0 40.2528605287 7.4699999556 10.1653823721
158 0 40.9716616096 8.7149999482 12.1984588466
159 0 41.6904626904 9.9599999408 14.231535321
160 0 42.4092637713 11.2049999334 16.2646117954
161 0 37.3776562052 0.0 2.0330764744
162 0 38.0964572861 1.2449999926 4.0661529489
163 0 38.8152583669 2.4899999852 6.0992294233
164 0 39.5340594478 3.7349999778 8.1323058977
165 0 40.2528605287 4.9799999704 10.1653823721
166 0 40.9716616096 6.224999963 12.1984588466
167 0 41.6904626904 7.4699999556 14.231535321
168 0 42.4092637713 8.7149999482 16.2646117954
169 0 38.8152583669 0.0 6.0992294233
170 0 39.5340594478 1.2449999926 8.1323058977
171 0 40.2528605287 2.4899999852 10.1653823721
172 0 40.9716616096 3.7349999778 12.1984588466
173 0 41.6904626904 4.9799999704 14.231535321
174 0 42.4092637713 6.224999963 16.2646117954
175 0 40.2528605287 0.0 10.1653823721
176 0 40.9716616096 1.2449999926 12.1984588466
177 0 41.6904626904 2.4899999852 14.231535321
178 0 42.4092637713 3.7349999778 16.2646117954
179 0 41.6904626904 0.0 14.231535321
180 0 42.4092637713 1.2449999926 16.2646117954
181 0 34.5024518817 22.4099998668 0.0
182 0 35.2212529626 23.6549998594 2.0330764744
183 0 34.5024518817 19.9199998816 0.0
184 0 35.2212529626 21.1649998742 2.0330764744
185 0 35.9400540435 22.4099998668 4.0661529489
186 0 36.6588551243 23.6549998594 6.0992294233
187 0 34.5024518817 17.4299998964 0.0
188 0 35.2212529626 18.674999889 2.0330764744
189 0 35.9400540435 19.9199998816 4.0661529489
190 0 36.6588551243 21.1649998742 6.0992294233
191 0 37.3776562052 22.4099998668 8.1323058977
192 0 38.0964572861 23.6549998594 10.1653823721
193 0 34.5024518817 14.9399999112 0.0
194 0 35.2212529626 16.1849999038 2.0330764744
195 0 35.9400540435 17.4299998964 4.0661529489
196 0 36.6588551243 18.674999889 6.0992294233
197 0 37.3776562052 19.9199998816 8.1323058977
198 0 38.0964572861 21.1649998742 10.1653823721
199 0 38.8152583669 22.4099998668 12.1984588466
200 0 39.5340594478 23.6549998594 14.231535321
201 0 34.5024518817 12.449999926 0.0
202 0 35.2212529626 13.6949999186 2.0330764744
203 0 35.9400540435 14.9399999112 4.0661529489
204 0 36.6588551243 16.1849999038 6.0992294233
205 0 37.3776562052 17.4299998964 8.1323058977
206 0 38.0964572861 18.674999889 10.1653823721
207 0 38.8152583669 19.9199998816 12.1984588466
208 0 39.5340594478 21.1649998742 14.231535321
209 0 40.2528605287 22.4099998668 16.2646117954
210 0 40.9716616096 23.6549998594 18.2976882699
211 0 34.5024518817 9.9599999408 0.0
212 0 35.2212529626 11.2049999334 2.0330764744
213 0 35.9400540435 12.449999926 4.0661529489
214 0 36.6588551243 13.6949999186 6.0992294233
215 0 37.3776562052 14.9399999112 8.1323058977
216 0 38.0964572861 16.1849999038 10.1653823721
217 0 38.8152583669 17.4299998964 12.1984588466
218 0 39.5340594478 18.674999889 14.231535321
219 0 40.2528605287 19.9199998816 16.2646117954
220 0 40.9716616096 21.1649998742 18.2976882699
221 0 41.6904626904 22.4099998668 20.3307647443
222 0 42.4092637713 23.6549998594 22.3638412187
223 0 34.5024518817 7.4699999556 0.0
224 0 35.2212529626 8.7149999482 2.0330764744
225 0 35.9400540435 9.9599999408 4.0661529489
226 0 36.6588551243 11.2049999334 6.0992294233
227 0 37.3776562052 12.449999926 8.1323058977
228 0 38.0964572861 13.6949999186 10.1653823721
229 0 38.8152583669 14.9399999112 12.1984588466
230 0 39.5340594478 16.1849999038 14.231535321
231 0 40.2528605287 17.4299998964 16.2646117954
232 0 40.9716616096 18.674999889 18.2976882699
233 0 41.6904626904 19.9199998816 20.3307647443
234 0 42.4092637713 21.1649998742 22.3638412187
235 0 34.5024518817 4.9799999704 0.0
236 0 35.2212529626 6.224999963 2.0330764744
237 0 35.9400540435 7.4699999556 4.0661529489
238 0 36.6588551243 8.7149999482 6.0992294233
239 0 37.3776562052 9.9599999408 8.1323058977
240 0 38.0964572861 11.2049999334 10.1653823721
241 0 38.8152583669 12.449999926 12.1984588466
242 0 39.5340594478 13.6949999186 14.231535321
243 0 40.2528605287 14.9399999112 16.2646117954
244 0 40.9716616096 16.1849999038 18.2976882699
245 0 41.6904626904 17.4299998964 20.3307647443
246 0 42.4092637713 18.674999889 22.3638412187
247 0 34.5024518817 2.4899999852 0.0
248 0 35.2212529626 3.7349999778 2.0330764744
249 0 35.9400540435 4.9799999704 4.0661529489
250 0 36.6588551243 6.224999963 6.0992294233
251 0 37.3776562052 7.4699999556 8.1323058977
252 0 38.0964572861 8.7149999482 10.1653823721
253 0 38.8152583669 9.9599999408 12.1984588466
254 0 39.5340594478 11.2049999334 14.231535321
255 0 40.2528605287 12.449999926 16.2646117954
256 0 40.9716616096 13.6949999186 18.2976882699
257 0 41.6904626904 14.9399999112 20.3307647443
258 0 42.4092637713 16.1849999038 22.3638412187
259 0 34.5024518817 0.0 0.0
260 0 35.2212529626 1.2449999926 2.0330764744
261 0 35.9400540435 2.4899999852 4.0661529489
262 0 36.6588551243 3.7349999778 6.0992294233
263 0 37.3776562052 4.9799999704 8.1323058977
264 0 38.0964572861 6.224999963 10.1653823721
265 0 38.8152583669 7.4699999556 12.1984588466
266 0 39.5340594478 8.7149999482 14.231535321
267 0 40.2528605287 9.9599999408 16.2646117954
268 0 40.9716616096 11.2049999334 18.2976882699
269 0 41.6904626904 12.449999926 20.3307647443
270 0 42.4092637713 13.6949999186 22.3638412187
271 0 35.9400540435 0.0 4.0661529489
272 0 36.6588551243 1.2449999926 6.0992294233
273 0 37.3776562052 2.4899999852 8.1323058977
274 0 38.0964572861 3.7349999778 10.1653823721
275 0 38.8152583669 4.9799999704 12.1984588466
276 0 39.5340594478 6.224999963 14.231535321
277 0 40.2528605287 7.4699999556 16.2646117954
278 0 40.9716616096 8.7149999482 18.2976882699
279 0 41.6904626904 9.9599999408 20.3307647443
280 0 42.4092637713 11.2049999334 22.3638412187
281 0 37.3776562052 0.0 8.1323058977
282 0 38.0964572861 1.2449999926 10.1653823721
283 0 38.8152583669 2.4899999852 12.1984588466
284 0 39.5340594478 3.7349999778 14.231535321
285 0 40.2528605287 4.9799999704 16.2646117954
286 0 40.9716616096 6.224999963 18.2976882699
287 0 41.6904626904 7.4699999556 20.3307647443
288 0 42.4092637713 8.7149999482 22.3638412187
289 0 38.8152583669 0.0 12.1984588466
290 0 39.5340594478 1.2449999926 14.231535321
291 0 40.2528605287 2.4899999852 16.2646117954
292 0 40.9716616096 3.7349999778 18.2976882699
293 0 41.6904626904 4.9799999704 20.3307647443
294 0 42.4092637713 6.224999963 22.3638412187
295 0 40.2528605287 0.0 16.2646117954
296 0 40.9716616096 1.2449999926 18.2976882699
297 0 41.6904626904 2.4899999852 20.3307647443
298 0 42.4092637713 3.7349999778 22.3638412187
299 0 41.6904626904 0.0 20.3307647443
300 0 42.4092637713 1.2449999926 22.3638412187
301 0 32.3460486391 23.6549998594 0.0
302 0 32.3460486391 21.1649998742 0.0
303 0 33.06484972 22.4099998668 2.0330764744
304 0 33.7836508009 23.6549998594 4.0661529489
305 0 32.3460486391 18.674999889 0.0
306 0 33.06484972 19.9199998816 2.0330764744
307 0 33.7836508009 21.1649998742 4.0661529489
308 0 34.5024518817 22.4099998668 6.0992294233
309 0 35.2212529626 23.6549998594 8.1323058977
310 0 32.3460486391 16.1849999038 0.0
311 0 33.06484972 17.4299998964 2.0330764744
312 0 33.7836508009 18.674999889 4.0661529489
313 0 34.5024518817 19.9199998816 6.0992294233
314 0 35.2212529626 21.1649998742 8.1323058977
315 0 35.9400540435 22.4099998668 10.1653823721
316 0 36.6588551243 23.6549998594 12.1984588466
317 0 32.3460486391 13.6949999186 3.6e-15
318 0 33.06484972 14.9399999112 2.0330764744
319 0 33.7836508009 16.1849999038 4.0661529489
320 0 34.5024518817 17.4299998964 6.0992294233
321 0 35.2212529626 18.674999889 8.1323058977
322 0 35.9400540435 19.9199998816 10.1653823721
323 0 36.6588551243 21.1649998742 12.1984588466
324 0 37.3776562052 22.4099998668 14.231535321
325 0 38.0964572861 23.6549998594 16.2646117954
326 0 32.3460486391 11.2049999334 0.0
327 0 33.06484972 12.449999926 2.0330764744
328 0 33.7836508009 13.6949999186 4.0661529489
329 0 34.5024518817 14.9399999112 6.0992294233
330 0 35.2212529626 16.1849999038 8.1323058977
331 0 35.9400540435 17.4299998964 10.1653823721
332 0 36.6588551243 18.674999889 12.1984588466
333 0 37.3776562052 19.9199998816 14.231535321
334 0 38.0964572861 21.1649998742 16.2646117954
335 0 38.8152583669 22.4099998668 18.2976882699
336 0 39.5340594478 23.6549998594 20.3307647443
337 0 32.3460486391 8.7149999482 0.0
338 0 33.06484972 9.9599999408 2.0330764744
339 0 33.7836508009 11.2049999334 4.0661529489
340 0 34.5024518817 12.449999926 6.0992294233
341 0 35.2212529626 13.6949999186 8.1323058977
342 0 35.9400540435 14.9399999112 10.1653823721
343 0 36.6588551243 16.1849999038 12.1984588466
344 0 37.3776562052 17.4299998964 14.231535321
345 0 38.0964572861 18.674999889 16.2646117954
346 0 38.8152583669 19.9199998816 18.2976882699
347 0 39.5340594478 21.1649998742 20.3307647443
348 0 40.2528605287 22.4099998668 22.3638412187
349 0 40.9716616096 23.6549998594 24.3969176931
350 0 32.3460486391 6.224999963 3.6e-15
351 0 33.06484972 7.4699999556 2.0330764744
352 0 33.7836508009 8.7149999482 4.0661529489
353 0 34.5024518817 9.9599999408 6.0992294233
354 0 35.2212529626 11.2049999334 8.1323058977
355 0 35.9400540435 12.449999926 10.1653823721
356 0 36.6588551243 13.6949999186 12.1984588466
357 0 37.3776562052 14.9399999112 14.231535321
358 0 38.0964572861 16.1849999038 16.2646117954
359 0 38.8152583669 17.4299998964 18.2976882699
360 0 39.5340594478 18.674999889 20.3307647443
361 0 40.2528605287 19.9199998816 22.3638412187
362 0 40.9716616096 21.1649998742 24.3969176931
363 0 41.6904626904 22.4099998668 26.4299941676
364 0 42.4092637713 23.6549998594 28.463070642
365 0 32.3460486391 3.7349999778 0.0
366 0 33.06484972 4.9799999704 2.0330764744
367 0 33.7836508009 6.224999963 4.0661529489
368 0 34.5024518817 7.4699999556 6.0992294233
369 0 35.2212529626 8.7149999482 8.1323058977
370 0 35.9400540435 9.9599999408 10.1653823721
371 0 36.6588551243 11.2049999334 12.1984588466
372 0 37.3776562052 12.449999926 14.231535321
373 0 38.0964572861 13.6949999186 16.2646117954
374 0 38.8152583669 14.9399999112 18.2976882699
375 0 39.5340594478 16.1849999038 20.3307647443
376 0 40.2528605287 17.4299998964 22.3638412187
377 0 40.9716616096 18.674999889 24.3969176931
378 0 41.6904626904 19.9199998816 26.4299941676
379 0 42.4092637713 21.1649998742 28.463070642
380 0 32.3460486391 1.2449999926 0.0
381 0 33.06484972 2.4899999852 2.0330764744
382 0 33.7836508009 3.7349999778 4.0661529489
383 0 34.5024518817 4.9799999704 6.0992294233
384 0 35.2212529626 6.224999963 8.1323058977
385 0 35.9400540435 7.4699999556 10.1653823721
386 0 36.6588551243 8.7149999482 12.1984588466
387 0 37.3776562052 9.9599999408 14.231535321
388 0 38.0964572861 11.2049999334 16.2646117954
389 0 38.8152583669 12.449999926 18.2976882699
390 0 39.5340594478 13.6949999186 20.3307647443
391 0 40.2528605287 14.9399999112 22.3638412187
392 0 40.9716616096 16.1849999038 24.3969176931
393 0 41.6904626904 17.4299998964 26.4299941676
394 0 42.4092637713 18.674999889 28.463070642
395 0 33.06484972 0.0 2.0330764744
396 0 33.7836508009 1.2449999926 4.0661529489
397 0 34.5024518817 2.4899999852 6.0992294233
398 0 35.2212529626 3.7349999778 8.1323058977
399 0 35.9400540435 4.9799999704 10.1653823721
400 0 36.6588551243 6.224999963 12.1984588466
401 0 37.3776562052 7.4699999556 14.231535321
402 0 38.0964572861 8.7149999482 16.2646117954
403 0 38.8152583669 9.9599999408 18.2976882699
404 0 39.5340594478 11.2049999334 20.3307647443
405 0 40.2528605287 12.449999926 22.3638412187
406 0 40.9716616096 13.6949999186 24.3969176931
407 0 41.6904626904 14.9399999112 26.4299941676
408 0 42.4092637713 16.1849999038 28.463070642
409 0 34.5024518817 0.0 6.0992294233
410 0 35.2212529626 1.2449999926 8.1323058977
411 0 35.9400540435 2.4899999852 10.1653823721
412 0 36.6588551243 3.7349999778 12.1984588466
413 0 37.3776562052 4.9799999704 14.231535321
414 0 38.0964572861 6.224999963 16.2646117954
415 0 38.8152583669 7.4699999556 18.2976882699
416 0 39.5340594478 8.7149999482 20.3307647443
417 0 40.2528605287 9.9599999408 22.3638412187
418 0 40.9716616096 11.2049999334 24.3969176931
419 0 41.6904626904 12.449999926 26.4299941676
420 0 42.4092637713 13.6949999186 28.463070642
421 0 35.9400540435 0.0 10.1653823721
422 0 36.6588551243 1.2449999926 12.1984588466
423 0 37.3776562052 2.4899999852 14.231535321
424 0 38.0964572861 3.7349999778 16.2646117954
425 0 38.8152583669 4.9799999704 18.2976882699
426 0 39.5340594478 6.224999963 20.3307647443
427 0 40.2528605287 7.4699999556 22.3638412187
428 0 40.9716616096 8.7149999482 24.3969176931
429 0 41.6904626904 9.9599999408 26.4299941676
430 0 42.4092637713 11.2049999334 28.463070642
431 0 37.3776562052 0.0 14.231535321
432 0 38.0964572861 1.2449999926 16.2646117954
433 0 38.8152583669 2.4899999852 18.2976882699
434 0 39.5340594478 3.7349999778 20.3307647443
435 0 40.2528605287 4.9799999704 22.3638412187
436 0 40.9716616096 6.224999963 24.3969176931
437 0 41.6904626904 7.4699999556 26.4299941676
438 0 42.4092637713 8.7149999482 28.463070642
439 0 38.8152583669 0.0 18.2976882699
440 0 39.5340594478 1.2449999926 20.3307647443
441 0 40.2528605287 2.4899999852 22.3638412187
442 0 40.9716616096 3.7349999778 24.3969176931
443 0 41.6904626904 4.9799999704 26.4299941676
444 0 42.4092637713 6.224999963 28.463070642
445 0 40.2528605287 0.0 22.3638412187
446 0 40.9716616096 1.2449999926 24.3969176931
447 0 41.6904626904 2.4899999852 26.4299941676
448 0 42.4092637713 3.7349999778 28.463070642
449 0 41.6904626904 0.0 26.4299941676
450 0 42.4092637713 1.2449999926 28.463070642
451 0 30.1896453965 22.4099998668 0.0
452 0 30.9084464774 23.6549998594 2.0330764744
453 0 30.1896453965 19.9199998816 0.0
454 0 30.9084464774 21.1649998742 2.0330764744
455 0 31.6272475583 22.4099998668 4.0661529489
456 0 32.3460486391 23.6549998594 6.0992294233
457 0 30.1896453965 17.4299998964 0.0
458 0 30.9084464774 18.674999889 2.0330764744
459 0 31.6272475583 19.9199998816 4.0661529489
460 0 32.3460486391 21.1649998742 6.0992294233
461 0 33.06484972 22.4099998668 8.1323058977
462 0 33.7836508009 23.6549998594 10.1653823721
463 0 30.1896453965 14.9399999112 3.6e-15
464 0 30.9084464774 16.1849999038 2.0330764744
465 0 31.6272475583 17.4299998964 4.0661529489
466 0 32.3460486391 18.674999889 6.0992294233
467 0 33.06484972 19.9199998816 8.1323058977
468 0 33.7836508009 21.1649998742 10.1653823721
469 0 34.5024518817 22.4099998668 12.1984588466
470 0 35.2212529626 23.6549998594 14.231535321
471 0 30.1896453965 12.449999926 3.6e-15
472 0 30.9084464774 13.6949999186 2.0330764744
473 0 31.6272475583 14.9399999112 4.0661529489
474 0 32.3460486391 16.1849999038 6.0992294233
475 0 33.06484972 17.4299998964 8.1323058977
476 0 33.7836508009 18.674999889 10.1653823721
477 0 34.5024518817 19.9199998816 12.1984588466
478 0 35.2212529626 21.1649998742 14.231535321
479 0 35.9400540435 22.4099998668 16.2646117954
480 0 36.6588551243 23.6549998594 18.2976882699
481 0 30.1896453965 9.9599999408 0.0
482 0 30.9084464774 11.2049999334 2.0330764744
483 0 31.6272475583 12.449999926 4.0661529489
484 0 32.3460486391 13.6949999186 6.0992294233
485 0 33.06484972 14.9399999112 8.1323058977
486 0 33.7836508009 16.1849999038 10.1653823721
487 0 34.5024518817 17.4299998964 12.1984588466
488 0 35.2212529626 18.674999889 14.231535321
489 0 35.9400540435 19.9199998816 16.2646117954
490 0 36.6588551243 21.1649998742 18.2976882699
491 0 37.3776562052 22.4099998668 20.3307647443
492 0 38.0964572861 23.6549998594 22.3638412187
493 0 30.1896453965 7.4699999556 3.6e-15
494 0 30.9084464774 8.7149999482 2.0330764744
495 0 31.6272475583 9.9599999408 4.0661529489
496 0 32.3460486391 11.2049999334 6.0992294233
497 0 33.06484972 12.449999926 8.1323058977
498 0 33.7836508009 13.6949999186 10.1653823721
499 0 34.5024518817 14.9399999112 12.1984588466
500 0 35.2212529626 16.1849999038 14.231535321
501 0 35.9400540435 17.4299998964 16.2646117954
502 0 36.6588551243 18.674999889 18.2976882699
503 0 37.3776562052 19.9199998816 20.3307647443
504 0 38.0964572861 21.1649998742 22.3638412187
505 0 38.8152583669 22.4099998668 24.3969176931
506 0 39.5340594478 23.6549998594 26.4299941676
507 0 30.1896453965 4.9799999704 3.6e-15
508 0 30.9084464774 6.224999963 2.0330764744
509 0 31.6272475583 7.4699999556 4.0661529489
510 0 32.3460486391 8.7149999482 6.0992294233
511 0 33.06484972 9.9599999408 8.1323058977
512 0 33.7836508009 11.2049999334 10.1653823721
513 0 34.5024518817 12.449999926 12.1984588466
514 0 35.2212529626 13.6949999186 14.231535321
515 0 35.9400540435 14.9399999112 16.2646117954
516 0 36.6588551243 16.1849999038 18.2976882699
517 0 37.3776562052 17.4299998964 20.3307647443
518 0 38.0964572861 18.674999889 22.3638412187
519 0 38.8152583669 19.9199998816 24.3969176931
520 0 39.5340594478 21.1649998742 26.4299941676
521 0 40.2528605287 22.4099998668 28.463070642
522 0 40.9716616096 23.6549998594 30.4961471164
523 0 30.1896453965 2.4899999852 0.0
524 0 30.9084464774 3.7349999778 2.0330764744
525 0 31.6272475583 4.9799999704 4.0661529489
526 0 32.3460486391 6.224999963 6.0992294233
527 0 33.06484972 7.4699999556 8.1323058977
528 0 33.7836508009 8.7149999482 10.1653823721
529 0 34.5024518817 9.9599999408 12.1984588466
530 0 35.2212529626 11.2049999334 14.231535321
531 0 35.9400540435 12.449999926 16.2646117954
532 0 36.6588551243 13.6949999186 18.2976882699
533 0 37.3776562052 14.9399999112 20.3307647443
534 0 38.0964572861 16.1849999038 22.3638412187
535 0 38.8152583669 17.4299998964 24.3969176931
536 0 39.5340594478 18.674999889 26.4299941676
537 0 40.2528605287 19.9199998816 28.463070642
538 0 40.9716616096 21.1649998742 30.4961471164
539 0 41.6904626904 22.4099998668 32.5292235908
540 0 42.4092637713 23.6549998594 34.5623000653
541 0 30.1896453965 0.0 0.0
542 0 30.9084464774 1.2449999926 2.0330764744
543 0 31.6272475583 2.4899999852 4.0661529489
544 0 32.3460486391 3.7349999778 6.0992294233
545 0 33.06484972 4.9799999704 8.1323058977
546 0 33.7836508009 6.224999963 10.1653823721
547 0 34.5024518817 7.4699999556 12.1984588466
548 0 35.2212529626 8.7149999482 14.231535321
549 0 35.9400540435 9.9599999408 16.2646117954
550 0 36.6588551243 11.2049999334 18.2976882699
551 0 37.3776562052 12.449999926 20.3307647443
552 0 38.0964572861 13.6949999186 22.3638412187
553 0 38.8152583669 14.9399999112 24.3969176931
554 0 39.5340594478 16.1849999038 26.4299941676
555 0 40.2528605287 17.4299998964 28.463070642
556 0 40.9716616096 18.674999889 30.4961471164
557 0 41.6904626904 19.9199998816 32.5292235908
558 0 42.4092637713 21.1649998742 34.5623000653
559 0 31.6272475583 0.0 4.0661529489
560 0 32.3460486391 1.2449999926 6.0992294233
561 0 33.06484972 2.4899999852 8.1323058977
562 0 33.7836508009 3.7349999778 10.1653823721
563 0 34.5024518817 4.9799999704 12.1984588466
564 0 35.2212529626 6.224999963 14.231535321
565 0 35.9400540435 7.4699999556 16.2646117954
566 0 36.6588551243 8.7149999482 18.2976882699
567 0 37.3776562052 9.9599999408 20.3307647443
568 0 38.0964572861 11.2049999334 22.3638412187
569 0 38.8152583669 12.449999926 24.3969176931
570 0 39.5340594478 13.6949999186 26.4299941676
571 0 40.2528605287 14.9399999112 28.463070642
572 0 40.9716616096 16.1849999038 30.4961471164
573 0 41.6904626904 17.4299998964 32.5292235908
574 0 42.4092637713 18.674999889 34.5623000653
575 0 33.06484972 0.0 8.1323058977
576 0 33.7836508009 1.2449999926 10.1653823721
577 0 34.5024518817 2.4899999852 12.1984588466
578 0 35.2212529626 3.7349999778 14.231535321
579 0 35.9400540435 4.9799999704 16.2646117954
580 0 36.6588551243 6.224999963 18.2976882699
581 0 37.3776562052 7.4699999556 20.3307647443
582 0 38.0964572861 8.7149999482 22.3638412187
583 0 38.8152583669 9.9599999408 24.3969176931
584 0 39.5340594478 11.2049999334 26.4299941676
585 0 40.2528605287 12.449999926 28.463070642
586 0 40.9716616096 13.6949999186 30.4961471164
587 0 41.6904626904 14.9399999112 32.5292235908
588 0 42.4092637713 16.1849999038 34.5623000653
589 0 34.5024518817 0.0 12.1984588466
590 0 35.2212529626 1.2449999926 14.231535321
591 0 35.9400540435 2.4899999852 16.2646117954
592 0 36.6588551243 3.7349999778 18.2976882699
593 0 37.3776562052 4.9799999704 20.3307647443
594 0 38.0964572861 6.224999963 22.3638412187
595 0 38.8152583669 7.4699999556 24.3969176931
596 0 39.5340594478 8.7149999482 26.4299941676
597 0 40.2528605287 9.9599999408 28.463070642
598 0 40.9716616096 11.2049999334 30.4961471164
599 0 41.6904626904 12.449999926 32.5292235908
600 0 42.4092637713 13.6949999186 34.5623000653
601 0 35.9400540435 0.0 16.2646117954
602 0 36.6588551243 1.2449999926 18.2976882699
603 0 37.3776562052 2.4899999852 20.3307647443
604 0 38.0964572861 3.7349999778 22.3638412187
605 0 38.8152583669 4.9799999704 24.3969176931
606 0 39.5340594478 6.224999963 26.4299941676
607 0 40.2528605287 7.4699999556 28.463070642
608 0 40.9716616096 8.7149999482 30.4961471164
609 0 41.6904626904 9.9599999408 32.5292235908
610 0 42.4092637713 11.2049999334 34.5623000653
611 0 37.3776562052 0.0 20.3307647443
612 0 38.0964572861 1.2449999926 22.3638412187
613 0 38.8152583669 2.4899999852 24.3969176931
614 0 39.5340594478 3.7349999778 26.4299941676
615 0 40.2528605287 4.9799999704 28.463070642
616 0 40.9716616096 6.224999963 30.4961471164
617 0 41.6904626904 7.4699999556 32.5292235908
618 0 42.4092637713 8.7149999482 34.5623000653
619 0 38.8152583669 0.0 24.3969176931
620 0 39.5340594478 1.2449999926 26.4299941676
621 0 40.2528605287 2.4899999852 28.463070642
622 0 40.9716616096 3.7349999778 30.4961471164
623 0 41.6904626904 4.9799999704 32.5292235908
624 0 42.4092637713 6.224999963 34.5623000653
625 0 40.2528605287 0.0 28.463070642
626 0 40.9716616096 1.2449999926 30.4961471164
627 0 41.6904626904 2.4899999852 32.5292235908
628 0 42.4092637713 3.7349999778 34.5623000653
629 0 41.6904626904 0.0 32.5292235908
630 0 42.4092637713 1.2449999926 34.5623000653
631 0 28.0332421539 23.6549998594 0.0
632 0 28.0332421539 21.1649998742 0.0
633 0 28.7520432348 22.4099998668 2.0330764744
634 0 29.4708443156 23.6549998594 4.0661529489
635 0 28.0332421539 18.674999889 -3.6e-15
636 0 28.7520432348 19.9199998816 2.0330764744
637 0 29.4708443156 21.1649998742 4.0661529489
638 0 30.1896453965 22.4099998668 6.0992294233
639 0 30.9084464774 23.6549998594 8.1323058977
640 0 28.0332421539 16.1849999038 0.0
641 0 28.7520432348 17.4299998964 2.0330764744
642 0 29.4708443156 18.674999889 4.0661529489
643 0 30.1896453965 19.9199998816 6.0992294233
644 0 30.9084464774 21.1649998742 8.1323058977
645 0 31.6272475583 22.4099998668 10.1653823721
646 0 32.3460486391 23.6549998594 12.1984588466
647 0 28.0332421539 13.6949999186 0.0
648 0 28.7520432348 14.9399999112 2.0330764744
649 0 29.4708443156 16.1849999038 4.0661529489
650 0 30.1896453965 17.4299998964 6.0992294233
651 0 30.9084464774 18.674999889 8.1323058977
652 0 31.6272475583 19.9199998816 10.1653823721
653 0 32.3460486391 21.1649998742 12.1984588466
654 0 33.06484972 22.4099998668 14.231535321
655 0 33.7836508009 23.6549998594 16.2646117954
656 0 28.0332421539 11.2049999334 -3.6e-15